 vasp.6.3.2 27Jun22 (build Dec 21 2022 11:15:52) complex                        
  
 executed on Aspire2aVTSTlibbeefS date 2024.10.02  14:21:20
 running    1 mpi-ranks, with    1 threads/rank
 distrk:  each k-point on    1 cores,    1 groups
 distr:  one band on NCORE=   1 cores,    1 groups


--------------------------------------------------------------------------------------------------------


 INCAR:
   ALGO = Normal
   EDIFF = 1e-06
   IBRION = -1
   ICHARG = 0
   ISIF = 3
   ISMEAR = -5
   ISPIN = 2
   ISYM = 0
   LASPH = True
   LORBIT = 11
   LREAL = Auto
   LWAVE = False
   NELM = 500
   NSW = 0
   PREC = Accurate
   SIGMA = 0.05
   ENCUT = 600
   NCORE = 64
   KSPACING = 0.2742775232585705

 POTCAR:    PAW_PBE In_d 06Sep2000                
 POTCAR:    PAW_PBE Te 08Apr2002                  
 -----------------------------------------------------------------------------
|                                                                             |
|           W    W    AA    RRRRR   N    N  II  N    N   GGGG   !!!           |
|           W    W   A  A   R    R  NN   N  II  NN   N  G    G  !!!           |
|           W    W  A    A  R    R  N N  N  II  N N  N  G       !!!           |
|           W WW W  AAAAAA  RRRRR   N  N N  II  N  N N  G  GGG   !            |
|           WW  WW  A    A  R   R   N   NN  II  N   NN  G    G                |
|           W    W  A    A  R    R  N    N  II  N    N   GGGG   !!!           |
|                                                                             |
|     You use a magnetic or noncollinear calculation, but did not specify     |
|     the initial magnetic moment with the MAGMOM tag. Note that a            |
|     default of 1 will be used for all atoms. This ferromagnetic setup       |
|     may break the symmetry of the crystal, in particular it may rule        |
|     out finding an antiferromagnetic solution. Thence, we recommend         |
|     setting the initial magnetic moment manually or verifying carefully     |
|     that this magnetic setup is desired.                                    |
|                                                                             |
 -----------------------------------------------------------------------------

 POTCAR:    PAW_PBE In_d 06Sep2000                
   VRHFIN =In: s2p1                                                                                 
   LEXCH  = PE                                                                                      
   EATOM  =  1576.8302 eV,  115.8937 Ry                                                             
                                                                                                    
   TITEL  = PAW_PBE In_d 06Sep2000                                                                  
   LULTRA =        F    use ultrasoft PP ?                                                          
   IUNSCR =        1    unscreen: 0-lin 1-nonlin 2-no                                               
   RPACOR =    2.200    partial core radius                                                         
   POMASS =  114.820; ZVAL   =   13.000    mass and valenz                                          
   RCORE  =    2.500    outmost cutoff radius                                                       
   RWIGS  =    3.170; RWIGS  =    1.677    wigner-seitz radius (au A)                               
   ENMAX  =  239.211; ENMIN  =  179.409 eV                                                          
   ICORE  =        3    local potential                                                             
   LCOR   =        T    correct aug charges                                                         
   LPAW   =        T    paw PP                                                                      
   EAUG   =  449.704                                                                                
   DEXC   =    0.000                                                                                
   RMAX   =    2.552    core radius for proj-oper                                                   
   RAUG   =    1.300    factor for augmentation sphere                                              
   RDEP   =    2.630    radius for radial grids                                                     
   RDEPT  =    2.033    core radius for aug-charge                                                  
                                                                                                    
   Atomic configuration                                                                             
   12 entries                                                                                       
     n  l   j            E        occ.                                                              
     1  0  0.50    -27747.9169   2.0000                                                             
     2  0  0.50     -4154.4438   2.0000                                                             
     2  1  1.50     -3728.4305   6.0000                                                             
     3  0  0.50      -788.3680   2.0000                                                             
     3  1  1.50      -648.9215   6.0000                                                             
     3  2  2.50      -432.5893  10.0000                                                             
     4  0  0.50      -119.6363   2.0000                                                             
     4  1  1.50       -78.1086   6.0000                                                             
     4  2  2.50       -18.6227  10.0000                                                             
     5  0  0.50        -8.2107   2.0000                                                             
     5  1  0.50        -2.5185   1.0000                                                             
     4  3  2.50        -2.7212   0.0000                                                             
   Description                                                                                      
     l       E           TYP  RCUT    TYP  RCUT                                                     
     2    -18.6226981     23  2.500                                                                 
     2     -1.3605826     23  2.500                                                                 
     0     -8.2107305     23  2.500                                                                 
     0     -6.1485975     23  2.500                                                                 
     1     -2.5184867     23  2.500                                                                 
     1      3.2427302     23  2.500                                                                 
     3     -1.3605826      7  2.500                                                                 
  local pseudopotential read in
  partial core-charges read in
  partial kinetic energy density read in
  atomic valenz-charges read in
  non local Contribution for L=           2  read in
    real space projection operators read in
  non local Contribution for L=           2  read in
    real space projection operators read in
  non local Contribution for L=           0  read in
    real space projection operators read in
  non local Contribution for L=           0  read in
    real space projection operators read in
  non local Contribution for L=           1  read in
    real space projection operators read in
  non local Contribution for L=           1  read in
    real space projection operators read in
    PAW grid and wavefunctions read in
 
   number of l-projection  operators is LMAX  =           6
   number of lm-projection operators is LMMAX =          18
 
 POTCAR:    PAW_PBE Te 08Apr2002                  
   VRHFIN =Te: s2p4                                                                                 
   LEXCH  = PE                                                                                      
   EATOM  =   223.2721 eV,   16.4100 Ry                                                             
                                                                                                    
   TITEL  = PAW_PBE Te 08Apr2002                                                                    
   LULTRA =        F    use ultrasoft PP ?                                                          
   IUNSCR =        1    unscreen: 0-lin 1-nonlin 2-no                                               
   RPACOR =    2.200    partial core radius                                                         
   POMASS =  127.600; ZVAL   =    6.000    mass and valenz                                          
   RCORE  =    2.300    outmost cutoff radius                                                       
   RWIGS  =    2.900; RWIGS  =    1.535    wigner-seitz radius (au A)                               
   ENMAX  =  174.982; ENMIN  =  131.236 eV                                                          
   ICORE  =        3    local potential                                                             
   LCOR   =        T    correct aug charges                                                         
   LPAW   =        T    paw PP                                                                      
   EAUG   =  368.792                                                                                
   DEXC   =    0.000                                                                                
   RMAX   =    2.345    core radius for proj-oper                                                   
   RAUG   =    1.300    factor for augmentation sphere                                              
   RDEP   =    2.397    radius for radial grids                                                     
   RDEPT  =    2.174    core radius for aug-charge                                                  
                                                                                                    
   Atomic configuration                                                                             
   13 entries                                                                                       
     n  l   j            E        occ.                                                              
     1  0  0.50    -31621.2075   2.0000                                                             
     2  0  0.50     -4848.7941   2.0000                                                             
     2  1  1.50     -4352.1960   6.0000                                                             
     3  0  0.50      -964.9612   2.0000                                                             
     3  1  1.50      -803.6179   6.0000                                                             
     3  2  2.50      -559.8710  10.0000                                                             
     4  0  0.50      -164.3522   2.0000                                                             
     4  1  1.50      -114.3756   6.0000                                                             
     4  2  2.50       -41.6483  10.0000                                                             
     5  0  0.50       -15.1072   2.0000                                                             
     5  1  0.50        -5.9526   4.0000                                                             
     5  2  1.50        -5.4423   0.0000                                                             
     4  3  2.50        -5.4423   0.0000                                                             
   Description                                                                                      
     l       E           TYP  RCUT    TYP  RCUT                                                     
     0    -15.1072389     23  2.300                                                                 
     0    -16.4678215     23  2.300                                                                 
     1     -5.9526306     23  2.300                                                                 
     1     -2.4873968     23  2.300                                                                 
     2     -5.4423304     23  2.300                                                                 
     3     -1.3605826     23  2.300                                                                 
  local pseudopotential read in
  partial core-charges read in
  partial kinetic energy density read in
  atomic valenz-charges read in
  non local Contribution for L=           0  read in
    real space projection operators read in
  non local Contribution for L=           0  read in
    real space projection operators read in
  non local Contribution for L=           1  read in
    real space projection operators read in
  non local Contribution for L=           1  read in
    real space projection operators read in
  non local Contribution for L=           2  read in
    real space projection operators read in
    PAW grid and wavefunctions read in
 
   number of l-projection  operators is LMAX  =           5
   number of lm-projection operators is LMMAX =          13
 
 Optimization of the real space projectors (new method)

 maximal supplied QI-value         = 15.12
 optimisation between [QCUT,QGAM] = [ 12.55, 25.10] = [ 44.09,176.36] Ry 
 Optimized for a Real-space Cutoff    1.35 Angstroem

   l    n(q)    QCUT    max X(q) W(low)/X(q) W(high)/X(q)  e(spline) 
   2      9    12.548     4.551    0.22E-03    0.22E-04    0.14E-06
   2      9    12.548     8.525    0.52E-04    0.12E-03    0.20E-06
   0     10    12.548   208.283    0.22E-03    0.11E-03    0.55E-06
   0     10    12.548   161.407    0.21E-03    0.11E-03    0.55E-06
   1     10    12.548   122.126    0.17E-03    0.34E-03    0.15E-06
   1     10    12.548    62.412    0.17E-03    0.33E-03    0.15E-06
 Optimization of the real space projectors (new method)

 maximal supplied QI-value         = 16.25
 optimisation between [QCUT,QGAM] = [ 12.51, 25.03] = [ 43.85,175.40] Ry 
 Optimized for a Real-space Cutoff    1.27 Angstroem

   l    n(q)    QCUT    max X(q) W(low)/X(q) W(high)/X(q)  e(spline) 
   0     10    12.514   224.858    0.15E-03    0.11E-03    0.12E-06
   0     10    12.514   205.313    0.15E-03    0.11E-03    0.12E-06
   1      9    12.514   119.695    0.70E-04    0.26E-03    0.21E-06
   1      9    12.514    84.282    0.69E-04    0.26E-03    0.21E-06
   2      9    12.514     5.599    0.93E-04    0.65E-04    0.52E-07
  PAW_PBE In_d 06Sep2000                :
 energy of atom  1       EATOM=-1576.8302
 kinetic energy error for atom=    0.0011 (will be added to EATOM!!)
  PAW_PBE Te 08Apr2002                  :
 energy of atom  2       EATOM= -223.2721
 kinetic energy error for atom=    0.0004 (will be added to EATOM!!)
 
 
 POSCAR: In21 Te32
  positions in direct lattice
  No initial velocities read in
 exchange correlation table for  LEXCH =        8
   RHO(1)=    0.500       N(1)  =     2000
   RHO(2)=  100.500       N(2)  =     4000

 VTST: version 4.2, (08/11/21)

 CHAIN: initializing optimizer
 
 OPT: Using VASP Dynamics algorithm
 CHAIN: Read ICHAIN            0
 
 POSCAR: In21 Te32
  positions in direct lattice
  No initial velocities read in
 


--------------------------------------------------------------------------------------------------------


 ion  position               nearest neighbor table
   1  0.250  0.250  0.500-  24 2.67  25 2.67  26 2.67  27 2.67
   2  0.000  0.500  0.000-  29 2.67  39 2.67  52 2.67  30 2.67
   3  0.250  0.500  0.250-  23 2.67  25 2.67  30 2.67  32 2.67
   4  0.250  0.750  0.000-  30 2.67  36 2.67  37 2.67  31 2.67
   5  0.000  0.500  0.500-  25 2.67  43 2.67  48 2.67  34 2.67
   6  0.000  0.750  0.750-  34 2.67  51 2.67  52 2.67  37 2.67
   7  0.250  0.500  0.750-  27 2.67  29 2.67  34 2.67  36 2.67
   8  0.250  0.750  0.500-  32 2.67  33 2.67  34 2.67  35 2.67
   9  0.500  0.000  0.000-  28 2.67  31 2.67  53 2.67  38 2.67
  10  0.500  0.250  0.250-  23 2.67  24 2.67  38 2.67  41 2.67
  11  0.750  0.000  0.250-  38 2.67  47 2.67  49 2.67  40 2.67
  12  0.750  0.250  0.000-  38 2.67  44 2.67  45 2.67  39 2.67
  13  0.500  0.250  0.750-  27 2.67  28 2.67  42 2.67  45 2.67
  14  0.750  0.000  0.750-  42 2.67  51 2.67  53 2.67  44 2.67
  15  0.750  0.250  0.500-  40 2.67  41 2.67  42 2.67  43 2.67
  16  0.500  0.750  0.250-  31 2.67  32 2.67  46 2.67  49 2.67
  17  0.750  0.500  0.250-  39 2.67  41 2.67  46 2.67  48 2.67
  18  0.750  0.750  0.000-  46 2.67  52 2.67  53 2.67  47 2.67
  19  0.500  0.500  0.500-  27 2.67  32 2.67  41 2.67  50 2.67
  20  0.500  0.750  0.750-  35 2.67  36 2.67  50 2.67  53 2.67
  21  0.750  0.750  0.500-  48 2.67  49 2.67  50 2.67  51 2.67
  22  0.125  0.125  0.125-
  23  0.375  0.375  0.125-   3 2.67  10 2.67
  24  0.375  0.125  0.375-   1 2.67  10 2.67
  25  0.125  0.375  0.375-   1 2.67   3 2.67   5 2.67
  26  0.125  0.125  0.625-   1 2.67
  27  0.375  0.375  0.625-   7 2.67  13 2.67  19 2.67   1 2.67
  28  0.375  0.125  0.875-   9 2.67  13 2.67
  29  0.125  0.375  0.875-   2 2.67   7 2.67
  30  0.125  0.625  0.125-   3 2.67   4 2.67   2 2.67
  31  0.375  0.875  0.125-   9 2.67  16 2.67   4 2.67
  32  0.375  0.625  0.375-   8 2.67  16 2.67  19 2.67   3 2.67
  33  0.125  0.875  0.375-   8 2.67
  34  0.125  0.625  0.625-   6 2.67   7 2.67   8 2.67   5 2.67
  35  0.375  0.875  0.625-  20 2.67   8 2.67
  36  0.375  0.625  0.875-   4 2.67  20 2.67   7 2.67
  37  0.125  0.875  0.875-   4 2.67   6 2.67
  38  0.625  0.125  0.125-  10 2.67  11 2.67  12 2.67   9 2.67
  39  0.875  0.375  0.125-   2 2.67  17 2.67  12 2.67
  40  0.875  0.125  0.375-  15 2.67  11 2.67
  41  0.625  0.375  0.375-  15 2.67  17 2.67  19 2.67  10 2.67
  42  0.625  0.125  0.625-  13 2.67  14 2.67  15 2.67
  43  0.875  0.375  0.625-   5 2.67  15 2.67
  44  0.875  0.125  0.875-  12 2.67  14 2.67
  45  0.625  0.375  0.875-  12 2.67  13 2.67
  46  0.625  0.625  0.125-  16 2.67  17 2.67  18 2.67
  47  0.875  0.875  0.125-  11 2.67  18 2.67
  48  0.875  0.625  0.375-   5 2.67  21 2.67  17 2.67
  49  0.625  0.875  0.375-  11 2.67  21 2.67  16 2.67
  50  0.625  0.625  0.625-  20 2.67  21 2.67  19 2.67
  51  0.875  0.875  0.625-   6 2.67  14 2.67  21 2.67
  52  0.875  0.625  0.875-   2 2.67   6 2.67  18 2.67
  53  0.625  0.875  0.875-   9 2.67  14 2.67  18 2.67  20 2.67
 

IMPORTANT INFORMATION: All symmetrisations will be switched off!
NOSYMM: (Re-)initialisation of all symmetry stuff for point group C_1.


----------------------------------------------------------------------------------------

                                     Primitive cell                                     

  volume of cell :    1872.6926

  direct lattice vectors                    reciprocal lattice vectors
    12.326000000  0.000000000  0.000000000     0.081129320 -0.000000000  0.000000000
     0.000000000 12.326000000  0.000000000     0.000000000  0.081129320  0.000000000
     0.000000000  0.000000000 12.326000000    -0.000000000 -0.000000000  0.081129320

  length of vectors
    12.326000000 12.326000000 12.326000000     0.081129320  0.081129320  0.081129320

  position of ions in fractional coordinates (direct lattice)
     0.250000000  0.250000000  0.500000000
     1.000000000  0.500000000  0.000000000
     0.250000000  0.500000000  0.250000000
     0.250000000  0.750000000  0.000000000
     1.000000000  0.500000000  0.500000000
     1.000000000  0.750000000  0.750000000
     0.250000000  0.500000000  0.750000000
     0.250000000  0.750000000  0.500000000
     0.500000000  0.000000000  0.000000000
     0.500000000  0.250000000  0.250000000
     0.750000000  0.000000000  0.250000000
     0.750000000  0.250000000  0.000000000
     0.500000000  0.250000000  0.750000000
     0.750000000  0.000000000  0.750000000
     0.750000000  0.250000000  0.500000000
     0.500000000  0.750000000  0.250000000
     0.750000000  0.500000000  0.250000000
     0.750000000  0.750000000  0.000000000
     0.500000000  0.500000000  0.500000000
     0.500000000  0.750000000  0.750000000
     0.750000000  0.750000000  0.500000000
     0.125000000  0.125000000  0.125000000
     0.375000000  0.375000000  0.125000000
     0.375000000  0.125000000  0.375000000
     0.125000000  0.375000000  0.375000000
     0.125000000  0.125000000  0.625000000
     0.375000000  0.375000000  0.625000000
     0.375000000  0.125000000  0.875000000
     0.125000000  0.375000000  0.875000000
     0.125000000  0.625000000  0.125000000
     0.375000000  0.875000000  0.125000000
     0.375000000  0.625000000  0.375000000
     0.125000000  0.875000000  0.375000000
     0.125000000  0.625000000  0.625000000
     0.375000000  0.875000000  0.625000000
     0.375000000  0.625000000  0.875000000
     0.125000000  0.875000000  0.875000000
     0.625000000  0.125000000  0.125000000
     0.875000000  0.375000000  0.125000000
     0.875000000  0.125000000  0.375000000
     0.625000000  0.375000000  0.375000000
     0.625000000  0.125000000  0.625000000
     0.875000000  0.375000000  0.625000000
     0.875000000  0.125000000  0.875000000
     0.625000000  0.375000000  0.875000000
     0.625000000  0.625000000  0.125000000
     0.875000000  0.875000000  0.125000000
     0.875000000  0.625000000  0.375000000
     0.625000000  0.875000000  0.375000000
     0.625000000  0.625000000  0.625000000
     0.875000000  0.875000000  0.625000000
     0.875000000  0.625000000  0.875000000
     0.625000000  0.875000000  0.875000000

  ion indices of the primitive-cell ions
   primitive index   ion index
                 1           1
                 2           2
                 3           3
                 4           4
                 5           5
                 6           6
                 7           7
                 8           8
                 9           9
                10          10
                11          11
                12          12
                13          13
                14          14
                15          15
                16          16
                17          17
                18          18
                19          19
                20          20
                21          21
                22          22
                23          23
                24          24
                25          25
                26          26
                27          27
                28          28
                29          29
                30          30
                31          31
                32          32
                33          33
                34          34
                35          35
                36          36
                37          37
                38          38
                39          39
                40          40
                41          41
                42          42
                43          43
                44          44
                45          45
                46          46
                47          47
                48          48
                49          49
                50          50
                51          51
                52          52
                53          53

----------------------------------------------------------------------------------------

 
 -----------------------------------------------------------------------------
|                                                                             |
|           W    W    AA    RRRRR   N    N  II  N    N   GGGG   !!!           |
|           W    W   A  A   R    R  NN   N  II  NN   N  G    G  !!!           |
|           W    W  A    A  R    R  N N  N  II  N N  N  G       !!!           |
|           W WW W  AAAAAA  RRRRR   N  N N  II  N  N N  G  GGG   !            |
|           WW  WW  A    A  R   R   N   NN  II  N   NN  G    G                |
|           W    W  A    A  R    R  N    N  II  N    N   GGGG   !!!           |
|                                                                             |
|     The requested file  could not be found or opened for reading            |
|     k-point information. Automatic k-point generation is used as a          |
|     fallback, which may lead to unwanted results.                           |
|                                                                             |
 -----------------------------------------------------------------------------

 

Automatic generation of k-mesh.
 Grid dimensions derived from KSPACING:
 generate k-points for:    2    2    2

 Generating k-lattice:

  Cartesian coordinates                     Fractional coordinates (reciprocal lattice)
     0.040564660 -0.000000000  0.000000000     0.500000000 -0.000000000  0.000000000
     0.000000000  0.040564660  0.000000000     0.000000000  0.500000000  0.000000000
    -0.000000000 -0.000000000  0.040564660     0.000000000  0.000000000  0.500000000

  Length of vectors
     0.040564660  0.040564660  0.040564660

  Shift w.r.t. Gamma in fractional coordinates (k-lattice)
     0.000000000  0.000000000  0.000000000

 TETIRR: Found     24 inequivalent tetrahedra from       48
 
 Subroutine IBZKPT returns following result:
 ===========================================
 
 Found      8 irreducible k-points:
 
 Following reciprocal coordinates:
            Coordinates               Weight
  0.000000  0.000000  0.000000      1.000000
  0.500000 -0.000000  0.000000      1.000000
  0.000000  0.500000  0.000000      1.000000
  0.000000 -0.000000  0.500000      1.000000
  0.500000  0.500000  0.000000      1.000000
  0.000000  0.500000  0.500000      1.000000
  0.500000 -0.000000  0.500000      1.000000
  0.500000  0.500000  0.500000      1.000000
 
 Following cartesian coordinates:
            Coordinates               Weight
  0.000000  0.000000  0.000000      1.000000
  0.040565 -0.000000  0.000000      1.000000
  0.000000  0.040565  0.000000      1.000000
 -0.000000 -0.000000  0.040565      1.000000
  0.040565  0.040565  0.000000      1.000000
 -0.000000  0.040565  0.040565      1.000000
  0.040565 -0.000000  0.040565      1.000000
  0.040565  0.040565  0.040565      1.000000
 


--------------------------------------------------------------------------------------------------------




 Dimension of arrays:
   k-points           NKPTS =      8   k-points in BZ     NKDIM =      8   number of bands    NBANDS=    306
   number of dos      NEDOS =    301   number of ions     NIONS =     53
   non local maximal  LDIM  =      6   non local SUM 2l+1 LMDIM =     18
   total plane-waves  NPLWV = 941192
   max r-space proj   IRMAX =   5183   max aug-charges    IRDMAX=  29428
   dimension x,y,z NGX =    98 NGY =   98 NGZ =   98
   dimension x,y,z NGXF=   196 NGYF=  196 NGZF=  196
   support grid    NGXF=   196 NGYF=  196 NGZF=  196
   ions per type =              21  32
   NGX,Y,Z   is equivalent  to a cutoff of  13.22, 13.22, 13.22 a.u.
   NGXF,Y,Z  is equivalent  to a cutoff of  26.44, 26.44, 26.44 a.u.

 SYSTEM =  unknown system                          
 POSCAR =  In21 Te32                               

 Startparameter for this run:
   NWRITE =      2    write-flag & timer
   PREC   = accura    normal or accurate (medium, high low for compatibility)
   ISTART =      0    job   : 0-new  1-cont  2-samecut
   ICHARG =      0    charge: 1-file 2-atom 10-const
   ISPIN  =      2    spin polarized calculation?
   LNONCOLLINEAR =      F non collinear calculations
   LSORBIT =      F    spin-orbit coupling
   INIWAV =      1    electr: 0-lowe 1-rand  2-diag
   LASPH  =      T    aspherical Exc in radial PAW
 Electronic Relaxation 1
   ENCUT  =  600.0 eV  44.10 Ry    6.64 a.u.  24.62 24.62 24.62*2*pi/ulx,y,z
   ENINI  =  600.0     initial cutoff
   ENAUG  =  449.7 eV  augmentation charge cutoff
   NELM   =    500;   NELMIN=  2; NELMDL= -5     # of ELM steps 
   EDIFF  = 0.1E-05   stopping-criterion for ELM
   LREAL  =      T    real-space projection
   NLSPLINE    = F    spline interpolate recip. space projectors
   LCOMPAT=      F    compatible to vasp.4.4
   GGA_COMPAT  = T    GGA compatible to vasp.4.4-vasp.4.6
   LMAXPAW     = -100 max onsite density
   LMAXMIX     =    2 max onsite mixed and CHGCAR
   VOSKOWN=      0    Vosko Wilk Nusair interpolation
   ROPT   =   -0.00025  -0.00025
 Ionic relaxation
   EDIFFG = 0.1E-04   stopping-criterion for IOM
   NSW    =      0    number of steps for IOM
   NBLOCK =      1;   KBLOCK =      1    inner block; outer block 
   IBRION =     -1    ionic relax: 0-MD 1-quasi-New 2-CG
   NFREE  =      0    steps in history (QN), initial steepest desc. (CG)
   ISIF   =      3    stress and relaxation
   IWAVPR =     10    prediction:  0-non 1-charg 2-wave 3-comb
   ISYM   =      0    0-nonsym 1-usesym 2-fastsym
   LCORR  =      T    Harris-Foulkes like correction to forces

   POTIM  = 0.5000    time-step for ionic-motion
   TEIN   =    0.0    initial temperature
   TEBEG  =    0.0;   TEEND  =   0.0 temperature during run
   SMASS  =  -3.00    Nose mass-parameter (am)
   estimated Nose-frequenzy (Omega)   =  0.10E-29 period in steps = 0.13E+47 mass=  -0.347E-26a.u.
   SCALEE = 1.0000    scale energy and forces
   NPACO  =    256;   APACO  = 10.0  distance and # of slots for P.C.
   PSTRESS=    0.0 pullay stress

  Mass of Ions in am
   POMASS = 114.82127.60
  Ionic Valenz
   ZVAL   =  13.00  6.00
  Atomic Wigner-Seitz radii
   RWIGS  =  -1.00 -1.00
  virtual crystal weights 
   VCA    =   1.00  1.00
   NELECT =     465.0000    total number of electrons
   NUPDOWN=      -1.0000    fix difference up-down

 DOS related values:
   EMIN   =  10.00;   EMAX   =-10.00  energy-range for DOS
   EFERMI =   0.00
   ISMEAR =    -5;   SIGMA  =   0.05  broadening in eV -4-tet -1-fermi 0-gaus

 Electronic relaxation 2 (details)
   IALGO  =     38    algorithm
   LDIAG  =      T    sub-space diagonalisation (order eigenvalues)
   LSUBROT=      F    optimize rotation matrix (better conditioning)
   TURBO    =      0    0=normal 1=particle mesh
   IRESTART =      0    0=no restart 2=restart with 2 vectors
   NREBOOT  =      0    no. of reboots
   NMIN     =      0    reboot dimension
   EREF     =   0.00    reference energy to select bands
   IMIX   =      4    mixing-type and parameters
     AMIX     =   0.40;   BMIX     =  1.00
     AMIX_MAG =   1.60;   BMIX_MAG =  1.00
     AMIN     =   0.10
     WC   =   100.;   INIMIX=   1;  MIXPRE=   1;  MAXMIX= -45

 Intra band minimization:
   WEIMIN = 0.0000     energy-eigenvalue tresh-hold
   EBREAK =  0.82E-09  absolut break condition
   DEPER  =   0.30     relativ break condition  

   TIME   =   0.40     timestep for ELM

  volume/ion in A,a.u.               =      35.33       238.44
  Fermi-wavevector in a.u.,A,eV,Ry     =   1.028972  1.944476 14.405629  1.058784
  Thomas-Fermi vector in A             =   2.162996
 
 Write flags
   LWAVE        =      F    write WAVECAR
   LDOWNSAMPLE  =      F    k-point downsampling of WAVECAR
   LCHARG       =      T    write CHGCAR
   LVTOT        =      F    write LOCPOT, total local potential
   LVHAR        =      F    write LOCPOT, Hartree potential only
   LELF         =      F    write electronic localiz. function (ELF)
   LORBIT       =     11    0 simple, 1 ext, 2 COOP (PROOUT), +10 PAW based schemes


 Dipole corrections
   LMONO  =      F    monopole corrections only (constant potential shift)
   LDIPOL =      F    correct potential (dipole corrections)
   IDIPOL =      0    1-x, 2-y, 3-z, 4-all directions 
   EPSILON=  1.0000000 bulk dielectric constant

 Exchange correlation treatment:
   GGA     =    --    GGA type
   LEXCH   =     8    internal setting for exchange type
   LIBXC   =     F    Libxc                    
   VOSKOWN =     0    Vosko Wilk Nusair interpolation
   LHFCALC =     F    Hartree Fock is set to
   LHFONE  =     F    Hartree Fock one center treatment
   AEXX    =    0.0000 exact exchange contribution

 Linear response parameters
   LEPSILON=     F    determine dielectric tensor
   LRPA    =     F    only Hartree local field effects (RPA)
   LNABLA  =     F    use nabla operator in PAW spheres
   LVEL    =     F    velocity operator in full k-point grid
   CSHIFT  =0.1000    complex shift for real part using Kramers Kronig
   OMEGAMAX=  -1.0    maximum frequency
   DEG_THRESHOLD= 0.2000000E-02 threshold for treating states as degnerate
   RTIME   =   -0.100 relaxation time in fs
  (WPLASMAI=    0.000 imaginary part of plasma frequency in eV, 0.658/RTIME)
   DFIELD  = 0.0000000 0.0000000 0.0000000 field for delta impulse in time
 
  Optional k-point grid parameters
   LKPOINTS_OPT  =     F    use optional k-point grid
   KPOINTS_OPT_MODE=     1    mode for optional k-point grid
 
 Orbital magnetization related:
   ORBITALMAG=     F  switch on orbital magnetization
   LCHIMAG   =     F  perturbation theory with respect to B field
   DQ        =  0.001000  dq finite difference perturbation B field
   LLRAUG    =     F  two centre corrections for induced B field



--------------------------------------------------------------------------------------------------------


 Static calculation
 charge density and potential will be updated during run
 spin polarized calculation
 Variant of blocked Davidson
 Davidson routine will perform the subspace rotation
 perform sub-space diagonalisation
    after iterative eigenvector-optimisation
 modified Broyden-mixing scheme, WC =      100.0
 initial mixing is a Kerker type mixing with AMIX =  0.4000 and BMIX =      1.0000
 Hartree-type preconditioning will be used
 using additional bands           73
 real space projection scheme for non local part
 use partial core corrections
 calculate Harris-corrections to forces 
   (improved forces if not selfconsistent)
 use gradient corrections 
 use of overlap-Matrix (Vanderbilt PP)
 Fermi weights with tetrahedron method with Bloechl corrections


--------------------------------------------------------------------------------------------------------


  energy-cutoff  :      600.00
  volume of cell :     1872.69
      direct lattice vectors                 reciprocal lattice vectors
    12.326000000  0.000000000  0.000000000     0.081129320 -0.000000000  0.000000000
     0.000000000 12.326000000  0.000000000     0.000000000  0.081129320  0.000000000
     0.000000000  0.000000000 12.326000000    -0.000000000 -0.000000000  0.081129320

  length of vectors
    12.326000000 12.326000000 12.326000000     0.081129320  0.081129320  0.081129320


 
 k-points in units of 2pi/SCALE and weight: read from INCAR                         
   0.00000000  0.00000000  0.00000000       0.125
   0.04056466 -0.00000000  0.00000000       0.125
   0.00000000  0.04056466  0.00000000       0.125
  -0.00000000 -0.00000000  0.04056466       0.125
   0.04056466  0.04056466  0.00000000       0.125
  -0.00000000  0.04056466  0.04056466       0.125
   0.04056466 -0.00000000  0.04056466       0.125
   0.04056466  0.04056466  0.04056466       0.125
 
 k-points in reciprocal lattice and weights: read from INCAR                         
   0.00000000  0.00000000  0.00000000       0.125
   0.50000000 -0.00000000  0.00000000       0.125
   0.00000000  0.50000000  0.00000000       0.125
   0.00000000 -0.00000000  0.50000000       0.125
   0.50000000  0.50000000  0.00000000       0.125
   0.00000000  0.50000000  0.50000000       0.125
   0.50000000 -0.00000000  0.50000000       0.125
   0.50000000  0.50000000  0.50000000       0.125
 
 position of ions in fractional coordinates (direct lattice) 
   0.25000000  0.25000000  0.50000000
   0.00000000  0.50000000  0.00000000
   0.25000000  0.50000000  0.25000000
   0.25000000  0.75000000  0.00000000
   0.00000000  0.50000000  0.50000000
   0.00000000  0.75000000  0.75000000
   0.25000000  0.50000000  0.75000000
   0.25000000  0.75000000  0.50000000
   0.50000000  0.00000000  0.00000000
   0.50000000  0.25000000  0.25000000
   0.75000000  0.00000000  0.25000000
   0.75000000  0.25000000  0.00000000
   0.50000000  0.25000000  0.75000000
   0.75000000  0.00000000  0.75000000
   0.75000000  0.25000000  0.50000000
   0.50000000  0.75000000  0.25000000
   0.75000000  0.50000000  0.25000000
   0.75000000  0.75000000  0.00000000
   0.50000000  0.50000000  0.50000000
   0.50000000  0.75000000  0.75000000
   0.75000000  0.75000000  0.50000000
   0.12500000  0.12500000  0.12500000
   0.37500000  0.37500000  0.12500000
   0.37500000  0.12500000  0.37500000
   0.12500000  0.37500000  0.37500000
   0.12500000  0.12500000  0.62500000
   0.37500000  0.37500000  0.62500000
   0.37500000  0.12500000  0.87500000
   0.12500000  0.37500000  0.87500000
   0.12500000  0.62500000  0.12500000
   0.37500000  0.87500000  0.12500000
   0.37500000  0.62500000  0.37500000
   0.12500000  0.87500000  0.37500000
   0.12500000  0.62500000  0.62500000
   0.37500000  0.87500000  0.62500000
   0.37500000  0.62500000  0.87500000
   0.12500000  0.87500000  0.87500000
   0.62500000  0.12500000  0.12500000
   0.87500000  0.37500000  0.12500000
   0.87500000  0.12500000  0.37500000
   0.62500000  0.37500000  0.37500000
   0.62500000  0.12500000  0.62500000
   0.87500000  0.37500000  0.62500000
   0.87500000  0.12500000  0.87500000
   0.62500000  0.37500000  0.87500000
   0.62500000  0.62500000  0.12500000
   0.87500000  0.87500000  0.12500000
   0.87500000  0.62500000  0.37500000
   0.62500000  0.87500000  0.37500000
   0.62500000  0.62500000  0.62500000
   0.87500000  0.87500000  0.62500000
   0.87500000  0.62500000  0.87500000
   0.62500000  0.87500000  0.87500000
 
 position of ions in cartesian coordinates  (Angst):
   3.08150000  3.08150000  6.16300000
   0.00000000  6.16300000  0.00000000
   3.08150000  6.16300000  3.08150000
   3.08150000  9.24450000  0.00000000
   0.00000000  6.16300000  6.16300000
   0.00000000  9.24450000  9.24450000
   3.08150000  6.16300000  9.24450000
   3.08150000  9.24450000  6.16300000
   6.16300000  0.00000000  0.00000000
   6.16300000  3.08150000  3.08150000
   9.24450000  0.00000000  3.08150000
   9.24450000  3.08150000  0.00000000
   6.16300000  3.08150000  9.24450000
   9.24450000  0.00000000  9.24450000
   9.24450000  3.08150000  6.16300000
   6.16300000  9.24450000  3.08150000
   9.24450000  6.16300000  3.08150000
   9.24450000  9.24450000  0.00000000
   6.16300000  6.16300000  6.16300000
   6.16300000  9.24450000  9.24450000
   9.24450000  9.24450000  6.16300000
   1.54075000  1.54075000  1.54075000
   4.62225000  4.62225000  1.54075000
   4.62225000  1.54075000  4.62225000
   1.54075000  4.62225000  4.62225000
   1.54075000  1.54075000  7.70375000
   4.62225000  4.62225000  7.70375000
   4.62225000  1.54075000 10.78525000
   1.54075000  4.62225000 10.78525000
   1.54075000  7.70375000  1.54075000
   4.62225000 10.78525000  1.54075000
   4.62225000  7.70375000  4.62225000
   1.54075000 10.78525000  4.62225000
   1.54075000  7.70375000  7.70375000
   4.62225000 10.78525000  7.70375000
   4.62225000  7.70375000 10.78525000
   1.54075000 10.78525000 10.78525000
   7.70375000  1.54075000  1.54075000
  10.78525000  4.62225000  1.54075000
  10.78525000  1.54075000  4.62225000
   7.70375000  4.62225000  4.62225000
   7.70375000  1.54075000  7.70375000
  10.78525000  4.62225000  7.70375000
  10.78525000  1.54075000 10.78525000
   7.70375000  4.62225000 10.78525000
   7.70375000  7.70375000  1.54075000
  10.78525000 10.78525000  1.54075000
  10.78525000  7.70375000  4.62225000
   7.70375000 10.78525000  4.62225000
   7.70375000  7.70375000  7.70375000
  10.78525000 10.78525000  7.70375000
  10.78525000  7.70375000 10.78525000
   7.70375000 10.78525000 10.78525000
 


--------------------------------------------------------------------------------------------------------


 k-point   1 :   0.0000 0.0000 0.0000  plane waves:   62669
 k-point   2 :   0.5000-0.0000 0.0000  plane waves:   62490
 k-point   3 :   0.0000 0.5000 0.0000  plane waves:   62490
 k-point   4 :   0.0000-0.0000 0.5000  plane waves:   62490
 k-point   5 :   0.5000 0.5000 0.0000  plane waves:   62452
 k-point   6 :   0.0000 0.5000 0.5000  plane waves:   62452
 k-point   7 :   0.5000-0.0000 0.5000  plane waves:   62452
 k-point   8 :   0.5000 0.5000 0.5000  plane waves:   62368

 maximum and minimum number of plane-waves per node :     62669    62368

 maximum number of plane-waves:     62669
 maximum index in each direction: 
   IXMAX=   24   IYMAX=   24   IZMAX=   24
   IXMIN=  -25   IYMIN=  -25   IZMIN=  -25


 serial   3D FFT for wavefunctions
 parallel 3D FFT for charge:
    minimum data exchange during FFTs selected (reduces bandwidth)


 total amount of memory used by VASP MPI-rank0  5981243. kBytes
=======================================================================

   base      :      30000. kBytes
   nonlr-proj:      36512. kBytes
   fftplans  :     258764. kBytes
   grid      :     682882. kBytes
   one-center:       1648. kBytes
   wavefun   :    4971437. kBytes
 
     INWAV:  cpu time      0.0002: real time      0.0005
 Broyden mixing: mesh for mixing (old mesh)
   NGX = 49   NGY = 49   NGZ = 49
  (NGX  =196   NGY  =196   NGZ  =196)
  gives a total of 117649 points

 charge density for first step will be calculated from the start-wavefunctions


--------------------------------------------------------------------------------------------------------


 Maximum index for non-local projection operator         4972
 Maximum index for augmentation-charges        28480 (set IRDMAX)


--------------------------------------------------------------------------------------------------------


 initial charge from wavefunction
 First call to EWALD:  gamma=   0.144
 Maximum number of real-space cells 3x 3x 3
 Maximum number of reciprocal cells 3x 3x 3

    FEWALD:  cpu time      0.0061: real time      0.0086


--------------------------------------- Iteration      1(   1)  ---------------------------------------


    POTLOK:  cpu time      4.5220: real time      4.5339
    SETDIJ:  cpu time     13.8412: real time     13.8729
     EDDAV:  cpu time    604.5676: real time    607.1727
 BZINTS: Fermi energy:   30.831898;  465.000000 electrons
         Band energy:-0.326171E+05;  BLOECHL correction:   -0.287813
       DOS:  cpu time      0.0139: real time      0.0207
    --------------------------------------------
      LOOP:  cpu time    622.9448: real time    625.6003

 eigenvalue-minimisations  : 10368
 total energy-change (2. order) :-0.1440530E+05  (-0.4915774E+05)
 number of electron     464.5000008 magnetization       0.0000000
 augmentation part       -1.6425179 magnetization       0.0199418

 Free energy of the ion-electron system (eV)
  ---------------------------------------------------
  alpha Z        PSCENC =       402.54809531
  Ewald energy   TEWEN  =    -23367.25716677
  -Hartree energ DENC   =       -54.91151971
  -exchange      EXHF   =         0.00000000
  -V(xc)+E(xc)   XCENC  =      -465.77800039
  PAW double counting   =   4437704.76213891 -4436265.63227037
  entropy T*S    EENTRO =         0.00000000
  eigenvalues    EBANDS =    -32617.13379343
  atomic energy  EATOM  =     40258.10503704
  Solvation  Ediel_sol  =         0.00000000
  ---------------------------------------------------
  free energy    TOTEN  =    -14405.29747942 eV

  energy without entropy =   -14405.29747942  energy(sigma->0) =   -14405.29747942


--------------------------------------------------------------------------------------------------------




--------------------------------------- Iteration      1(   2)  ---------------------------------------


     EDDAV:  cpu time    819.7058: real time    822.6379
 BZINTS: Fermi energy:  -34.581522;  465.000000 electrons
         Band energy:-0.456010E+05;  BLOECHL correction:   -0.112629
       DOS:  cpu time      0.0126: real time      0.0127
    --------------------------------------------
      LOOP:  cpu time    819.7184: real time    822.6505

 eigenvalue-minimisations  : 15184
 total energy-change (2. order) :-0.1298387E+05  (-0.1222352E+05)
 number of electron     464.5000008 magnetization       0.0000000
 augmentation part       -1.6425179 magnetization       0.0199418

 Free energy of the ion-electron system (eV)
  ---------------------------------------------------
  alpha Z        PSCENC =       402.54809531
  Ewald energy   TEWEN  =    -23367.25716677
  -Hartree energ DENC   =       -54.91151971
  -exchange      EXHF   =         0.00000000
  -V(xc)+E(xc)   XCENC  =      -465.77800039
  PAW double counting   =   4437704.76213891 -4436265.63227037
  entropy T*S    EENTRO =         0.00000000
  eigenvalues    EBANDS =    -45601.00148143
  atomic energy  EATOM  =     40258.10503704
  Solvation  Ediel_sol  =         0.00000000
  ---------------------------------------------------
  free energy    TOTEN  =    -27389.16516742 eV

  energy without entropy =   -27389.16516742  energy(sigma->0) =   -27389.16516742


--------------------------------------------------------------------------------------------------------




--------------------------------------- Iteration      1(   3)  ---------------------------------------


     EDDAV:  cpu time   1001.8781: real time   1005.8206
 BZINTS: Fermi energy:  -50.934032;  465.000000 electrons
         Band energy:-0.526709E+05;  BLOECHL correction:   -0.057606
       DOS:  cpu time      0.0134: real time      0.0134
    --------------------------------------------
      LOOP:  cpu time   1001.8915: real time   1005.8340

 eigenvalue-minimisations  : 19176
 total energy-change (2. order) :-0.7069905E+04  (-0.6595505E+04)
 number of electron     464.5000008 magnetization       0.0000000
 augmentation part       -1.6425179 magnetization       0.0199418

 Free energy of the ion-electron system (eV)
  ---------------------------------------------------
  alpha Z        PSCENC =       402.54809531
  Ewald energy   TEWEN  =    -23367.25716677
  -Hartree energ DENC   =       -54.91151971
  -exchange      EXHF   =         0.00000000
  -V(xc)+E(xc)   XCENC  =      -465.77800039
  PAW double counting   =   4437704.76213891 -4436265.63227037
  entropy T*S    EENTRO =         0.00000000
  eigenvalues    EBANDS =    -52670.90618230
  atomic energy  EATOM  =     40258.10503704
  Solvation  Ediel_sol  =         0.00000000
  ---------------------------------------------------
  free energy    TOTEN  =    -34459.06986830 eV

  energy without entropy =   -34459.06986830  energy(sigma->0) =   -34459.06986830


--------------------------------------------------------------------------------------------------------




--------------------------------------- Iteration      1(   4)  ---------------------------------------


     EDDAV:  cpu time    860.7087: real time    864.9214
 BZINTS: Fermi energy:  -60.755586;  465.000000 electrons
         Band energy:-0.567025E+05;  BLOECHL correction:   -0.077870
       DOS:  cpu time      0.0128: real time      0.0131
    --------------------------------------------
      LOOP:  cpu time    860.7215: real time    864.9345

 eigenvalue-minimisations  : 16096
 total energy-change (2. order) :-0.4031576E+04  (-0.3742439E+04)
 number of electron     464.5000008 magnetization       0.0000000
 augmentation part       -1.6425179 magnetization       0.0199418

 Free energy of the ion-electron system (eV)
  ---------------------------------------------------
  alpha Z        PSCENC =       402.54809531
  Ewald energy   TEWEN  =    -23367.25716677
  -Hartree energ DENC   =       -54.91151971
  -exchange      EXHF   =         0.00000000
  -V(xc)+E(xc)   XCENC  =      -465.77800039
  PAW double counting   =   4437704.76213891 -4436265.63227037
  entropy T*S    EENTRO =         0.00000000
  eigenvalues    EBANDS =    -56702.48199162
  atomic energy  EATOM  =     40258.10503704
  Solvation  Ediel_sol  =         0.00000000
  ---------------------------------------------------
  free energy    TOTEN  =    -38490.64567761 eV

  energy without entropy =   -38490.64567761  energy(sigma->0) =   -38490.64567761


--------------------------------------------------------------------------------------------------------




--------------------------------------- Iteration      1(   5)  ---------------------------------------


     EDDAV:  cpu time    877.5713: real time    880.8426
 BZINTS: Fermi energy:  -64.798965;  465.000000 electrons
         Band energy:-0.575337E+05;  BLOECHL correction:   -0.026520
       DOS:  cpu time      0.0139: real time      0.0333
    CHARGE:  cpu time     34.4092: real time     34.4864
    MIXING:  cpu time      0.0550: real time      0.0552
    --------------------------------------------
      LOOP:  cpu time    912.0495: real time    915.4175

 eigenvalue-minimisations  : 16416
 total energy-change (2. order) :-0.8311996E+03  (-0.7844403E+03)
 number of electron     465.0000112 magnetization       0.1692417
 augmentation part       55.9626894 magnetization      -0.4854339

 Broyden mixing:
  rms(total) = 0.78517E+04    rms(broyden)= 0.78517E+04
  rms(prec ) = 0.78520E+04
  weight for this iteration     100.00

 Free energy of the ion-electron system (eV)
  ---------------------------------------------------
  alpha Z        PSCENC =       402.54809531
  Ewald energy   TEWEN  =    -23367.25716677
  -Hartree energ DENC   =       -54.91151971
  -exchange      EXHF   =         0.00000000
  -V(xc)+E(xc)   XCENC  =      -465.77800039
  PAW double counting   =   4437704.76213891 -4436265.63227037
  entropy T*S    EENTRO =         0.00000000
  eigenvalues    EBANDS =    -57533.68156933
  atomic energy  EATOM  =     40258.10503704
  Solvation  Ediel_sol  =         0.00000000
  ---------------------------------------------------
  free energy    TOTEN  =    -39321.84525533 eV

  energy without entropy =   -39321.84525533  energy(sigma->0) =   -39321.84525533


--------------------------------------------------------------------------------------------------------




--------------------------------------- Iteration      1(   6)  ---------------------------------------


    POTLOK:  cpu time      4.4657: real time      4.4808
    SETDIJ:  cpu time     13.9366: real time     13.9682
     EDDAV:  cpu time    803.5261: real time    806.0522
 BZINTS: Fermi energy:   -9.583060;  465.000000 electrons
         Band energy:-0.157848E+05;  BLOECHL correction:   -0.092353
       DOS:  cpu time      0.0126: real time      0.0127
    CHARGE:  cpu time     34.6674: real time     34.7947
    MIXING:  cpu time      0.0581: real time      0.0878
    --------------------------------------------
      LOOP:  cpu time    856.6667: real time    859.3964

 eigenvalue-minimisations  : 14760
 total energy-change (2. order) : 0.3239770E+05  (-0.6409428E+04)
 number of electron     465.0000254 magnetization       0.1860663
 augmentation part      130.9155858 magnetization      -0.0704632

 Broyden mixing:
  rms(total) = 0.31123E+04    rms(broyden)= 0.31123E+04
  rms(prec ) = 0.31125E+04
  weight for this iteration     100.00

 eigenvalues of (default mixing * dielectric matrix)
  average eigenvalue GAMMA=   0.7162
  0.7162

 Free energy of the ion-electron system (eV)
  ---------------------------------------------------
  alpha Z        PSCENC =       402.54809531
  Ewald energy   TEWEN  =    -23367.25716677
  -Hartree energ DENC   =     -9096.50565222
  -exchange      EXHF   =         0.00000000
  -V(xc)+E(xc)   XCENC  =       -63.86972156
  PAW double counting   = ************************************
  entropy T*S    EENTRO =         0.00000000
  eigenvalues    EBANDS =    -15784.84525240
  atomic energy  EATOM  =     40258.10503704
  Solvation  Ediel_sol  =         0.00000000
  ---------------------------------------------------
  free energy    TOTEN  =     -6924.14655144 eV

  energy without entropy =    -6924.14655144  energy(sigma->0) =    -6924.14655144


--------------------------------------------------------------------------------------------------------




--------------------------------------- Iteration      1(   7)  ---------------------------------------


    POTLOK:  cpu time      4.5037: real time      4.5159
    SETDIJ:  cpu time     14.2188: real time     14.2549
     EDDAV:  cpu time    760.2855: real time    763.0389
 BZINTS: Fermi energy:   -8.709879;  465.000000 electrons
         Band energy:-0.113284E+05;  BLOECHL correction:   -0.021330
       DOS:  cpu time      0.0130: real time      0.0130
    CHARGE:  cpu time     34.4334: real time     34.5590
    MIXING:  cpu time      0.0560: real time      0.0649
    --------------------------------------------
      LOOP:  cpu time    813.5105: real time    816.4466

 eigenvalue-minimisations  : 13858
 total energy-change (2. order) : 0.2520227E+04  (-0.1444217E+04)
 number of electron     465.0000256 magnetization      -0.0006558
 augmentation part      123.0863473 magnetization       0.6375912

 Broyden mixing:
  rms(total) = 0.22698E+04    rms(broyden)= 0.22698E+04
  rms(prec ) = 0.22699E+04
  weight for this iteration     100.00

 eigenvalues of (default mixing * dielectric matrix)
  average eigenvalue GAMMA=   0.6577
  0.6577  0.6577

 Free energy of the ion-electron system (eV)
  ---------------------------------------------------
  alpha Z        PSCENC =       402.54809531
  Ewald energy   TEWEN  =    -23367.25716677
  -Hartree energ DENC   =    -10767.99355526
  -exchange      EXHF   =         0.00000000
  -V(xc)+E(xc)   XCENC  =       -73.07496242
  PAW double counting   = ************************************
  entropy T*S    EENTRO =         0.00000000
  eigenvalues    EBANDS =    -11328.41750232
  atomic energy  EATOM  =     40258.10503704
  Solvation  Ediel_sol  =         0.00000000
  ---------------------------------------------------
  free energy    TOTEN  =     -4403.91991130 eV

  energy without entropy =    -4403.91991130  energy(sigma->0) =    -4403.91991130


--------------------------------------------------------------------------------------------------------




--------------------------------------- Iteration      1(   8)  ---------------------------------------


    POTLOK:  cpu time      4.4665: real time      4.4765
    SETDIJ:  cpu time     13.8363: real time     13.8656
     EDDAV:  cpu time    877.3154: real time    879.5610
 BZINTS: Fermi energy:   -7.433971;  465.000000 electrons
         Band energy:-0.971068E+04;  BLOECHL correction:   -0.018779
       DOS:  cpu time      0.0125: real time      0.0125
    CHARGE:  cpu time     34.6006: real time     34.7275
    MIXING:  cpu time      0.0567: real time      0.0732
    --------------------------------------------
      LOOP:  cpu time    930.2880: real time    932.7162

 eigenvalue-minimisations  : 16444
 total energy-change (2. order) : 0.8902886E+03  (-0.4971514E+03)
 number of electron     465.0000242 magnetization       0.0138330
 augmentation part      104.7682321 magnetization       0.1682630

 Broyden mixing:
  rms(total) = 0.18777E+04    rms(broyden)= 0.18777E+04
  rms(prec ) = 0.18778E+04
  weight for this iteration     100.00

 eigenvalues of (default mixing * dielectric matrix)
  average eigenvalue GAMMA=   0.4745
  0.6195  0.6195  0.1845

 Free energy of the ion-electron system (eV)
  ---------------------------------------------------
  alpha Z        PSCENC =       402.54809531
  Ewald energy   TEWEN  =    -23367.25716677
  -Hartree energ DENC   =    -11545.77406288
  -exchange      EXHF   =         0.00000000
  -V(xc)+E(xc)   XCENC  =       -72.28566253
  PAW double counting   = ************************************
  entropy T*S    EENTRO =         0.00000000
  eigenvalues    EBANDS =     -9710.67947092
  atomic energy  EATOM  =     40258.10503704
  Solvation  Ediel_sol  =         0.00000000
  ---------------------------------------------------
  free energy    TOTEN  =     -3513.63132242 eV

  energy without entropy =    -3513.63132242  energy(sigma->0) =    -3513.63132242


--------------------------------------------------------------------------------------------------------




--------------------------------------- Iteration      1(   9)  ---------------------------------------


    POTLOK:  cpu time      4.4715: real time      4.4826
    SETDIJ:  cpu time     13.8462: real time     13.8801
     EDDAV:  cpu time    943.4954: real time    946.7391
 BZINTS: Fermi energy:   -7.412299;  465.000000 electrons
         Band energy:-0.950806E+04;  BLOECHL correction:   -0.016842
       DOS:  cpu time      0.0126: real time      0.0127
    CHARGE:  cpu time     34.3515: real time     34.4769
    MIXING:  cpu time      0.0570: real time      0.0572
    --------------------------------------------
      LOOP:  cpu time    996.2342: real time    999.6485

 eigenvalue-minimisations  : 17952
 total energy-change (2. order) : 0.1299012E+03  (-0.1138158E+03)
 number of electron     465.0000239 magnetization       0.0080959
 augmentation part       97.1123086 magnetization       0.2078287

 Broyden mixing:
  rms(total) = 0.18104E+04    rms(broyden)= 0.18104E+04
  rms(prec ) = 0.18105E+04
  weight for this iteration     100.00

 eigenvalues of (default mixing * dielectric matrix)
  average eigenvalue GAMMA=   0.4244
  0.6159  0.6159  0.2329  0.2329

 Free energy of the ion-electron system (eV)
  ---------------------------------------------------
  alpha Z        PSCENC =       402.54809531
  Ewald energy   TEWEN  =    -23367.25716677
  -Hartree energ DENC   =    -11641.88184848
  -exchange      EXHF   =         0.00000000
  -V(xc)+E(xc)   XCENC  =       -75.35873808
  PAW double counting   = ************************************
  entropy T*S    EENTRO =         0.00000000
  eigenvalues    EBANDS =     -9508.05729649
  atomic energy  EATOM  =     40258.10503704
  Solvation  Ediel_sol  =         0.00000000
  ---------------------------------------------------
  free energy    TOTEN  =     -3383.73013403 eV

  energy without entropy =    -3383.73013403  energy(sigma->0) =    -3383.73013403


--------------------------------------------------------------------------------------------------------




--------------------------------------- Iteration      1(  10)  ---------------------------------------


    POTLOK:  cpu time      4.4704: real time      4.4868
    SETDIJ:  cpu time     14.0050: real time     14.0551
     EDDAV:  cpu time    881.4376: real time    885.2785
 BZINTS: Fermi energy:   -7.158974;  465.000000 electrons
         Band energy:-0.938123E+04;  BLOECHL correction:   -0.012297
       DOS:  cpu time      0.0133: real time      0.0218
    CHARGE:  cpu time     34.5607: real time     34.6441
    MIXING:  cpu time      0.0609: real time      0.1088
    --------------------------------------------
      LOOP:  cpu time    934.5479: real time    938.5953

 eigenvalue-minimisations  : 16552
 total energy-change (2. order) : 0.9699496E+02  (-0.9596082E+01)
 number of electron     465.0000237 magnetization       0.2593487
 augmentation part       95.6016427 magnetization       0.2633884

 Broyden mixing:
  rms(total) = 0.17777E+04    rms(broyden)= 0.17777E+04
  rms(prec ) = 0.17779E+04
  weight for this iteration     100.00

 eigenvalues of (default mixing * dielectric matrix)
  average eigenvalue GAMMA=   0.7061
  0.8284  0.8284  0.6526  0.6526  0.5686

 Free energy of the ion-electron system (eV)
  ---------------------------------------------------
  alpha Z        PSCENC =       402.54809531
  Ewald energy   TEWEN  =    -23367.25716677
  -Hartree energ DENC   =    -11681.27094919
  -exchange      EXHF   =         0.00000000
  -V(xc)+E(xc)   XCENC  =       -77.93479837
  PAW double counting   = ************************************
  entropy T*S    EENTRO =         0.00000000
  eigenvalues    EBANDS =     -9381.22792290
  atomic energy  EATOM  =     40258.10503704
  Solvation  Ediel_sol  =         0.00000000
  ---------------------------------------------------
  free energy    TOTEN  =     -3286.73517125 eV

  energy without entropy =    -3286.73517125  energy(sigma->0) =    -3286.73517125


--------------------------------------------------------------------------------------------------------




--------------------------------------- Iteration      1(  11)  ---------------------------------------


    POTLOK:  cpu time      4.4653: real time      4.6726
    SETDIJ:  cpu time     13.8712: real time     13.9018
     EDDAV:  cpu time    755.5408: real time    757.6410
 BZINTS: Fermi energy:   -3.718476;  465.000000 electrons
         Band energy:-0.784244E+04;  BLOECHL correction:   -0.014080
       DOS:  cpu time      0.0132: real time      0.0132
    CHARGE:  cpu time     34.7474: real time     34.8558
    MIXING:  cpu time      0.0618: real time      0.0974
    --------------------------------------------
      LOOP:  cpu time    808.6997: real time    811.1819

 eigenvalue-minimisations  : 13736
 total energy-change (2. order) : 0.1048199E+04  (-0.1655065E+02)
 number of electron     465.0000243 magnetization       1.0058174
 augmentation part       98.6258327 magnetization       0.7262600

 Broyden mixing:
  rms(total) = 0.14302E+04    rms(broyden)= 0.14302E+04
  rms(prec ) = 0.14304E+04
  weight for this iteration     100.00

 eigenvalues of (default mixing * dielectric matrix)
  average eigenvalue GAMMA=   0.9758
  1.5751  1.5751  0.6921  0.6921  0.6601  0.6601

 Free energy of the ion-electron system (eV)
  ---------------------------------------------------
  alpha Z        PSCENC =       402.54809531
  Ewald energy   TEWEN  =    -23367.25716677
  -Hartree energ DENC   =    -12280.91287326
  -exchange      EXHF   =         0.00000000
  -V(xc)+E(xc)   XCENC  =       -89.08133449
  PAW double counting   = ************************************
  entropy T*S    EENTRO =         0.00000000
  eigenvalues    EBANDS =     -7842.44216156
  atomic energy  EATOM  =     40258.10503704
  Solvation  Ediel_sol  =         0.00000000
  ---------------------------------------------------
  free energy    TOTEN  =     -2238.53571619 eV

  energy without entropy =    -2238.53571619  energy(sigma->0) =    -2238.53571619


--------------------------------------------------------------------------------------------------------




--------------------------------------- Iteration      1(  12)  ---------------------------------------


    POTLOK:  cpu time      4.4813: real time      4.5041
    SETDIJ:  cpu time     13.3202: real time     13.3482
     EDDAV:  cpu time    833.5357: real time    835.9812
 BZINTS: Fermi energy:    6.375562;  465.000000 electrons
         Band energy:-0.209740E+04;  BLOECHL correction:   -0.019351
       DOS:  cpu time      0.0131: real time      0.0138
    CHARGE:  cpu time     34.5032: real time     34.5920
    MIXING:  cpu time      0.0624: real time      0.0626
    --------------------------------------------
      LOOP:  cpu time    885.9159: real time    888.5020

 eigenvalue-minimisations  : 15432
 total energy-change (2. order) : 0.1927762E+04  (-0.8364204E+03)
 number of electron     465.0000269 magnetization       0.7147698
 augmentation part      118.9881131 magnetization       1.1162761

 Broyden mixing:
  rms(total) = 0.12095E+03    rms(broyden)= 0.12095E+03
  rms(prec ) = 0.12142E+03
  weight for this iteration     100.00

 eigenvalues of (default mixing * dielectric matrix)
  average eigenvalue GAMMA=   0.8697
  1.5846  1.5846  0.5921  0.5921  0.6566  0.6566  0.4215

 Free energy of the ion-electron system (eV)
  ---------------------------------------------------
  alpha Z        PSCENC =       402.54809531
  Ewald energy   TEWEN  =    -23367.25716677
  -Hartree energ DENC   =    -16627.89989140
  -exchange      EXHF   =         0.00000000
  -V(xc)+E(xc)   XCENC  =       -38.98050352
  PAW double counting   =   6531652.26401086 -6530492.15423638
  entropy T*S    EENTRO =         0.00000000
  eigenvalues    EBANDS =     -2097.39881371
  atomic energy  EATOM  =     40258.10503704
  Solvation  Ediel_sol  =         0.00000000
  ---------------------------------------------------
  free energy    TOTEN  =      -310.77346858 eV

  energy without entropy =     -310.77346858  energy(sigma->0) =     -310.77346858


--------------------------------------------------------------------------------------------------------




--------------------------------------- Iteration      1(  13)  ---------------------------------------


    POTLOK:  cpu time      4.4831: real time      4.5890
    SETDIJ:  cpu time     13.6647: real time     13.7599
     EDDAV:  cpu time    682.8751: real time    684.7016
 BZINTS: Fermi energy:    5.168622;  465.000000 electrons
         Band energy:-0.296269E+04;  BLOECHL correction:   -0.030567
       DOS:  cpu time      0.0128: real time      0.0128
    CHARGE:  cpu time     35.3895: real time     35.4730
    MIXING:  cpu time      0.0647: real time      0.0649
    --------------------------------------------
      LOOP:  cpu time    736.4900: real time    738.6013

 eigenvalue-minimisations  : 12104
 total energy-change (2. order) :-0.2251056E+02  (-0.2733594E+03)
 number of electron     465.0000266 magnetization       0.6409052
 augmentation part      111.5601958 magnetization       0.5756803

 Broyden mixing:
  rms(total) = 0.27632E+03    rms(broyden)= 0.27632E+03
  rms(prec ) = 0.27639E+03
  weight for this iteration     100.00

 eigenvalues of (default mixing * dielectric matrix)
  average eigenvalue GAMMA=   0.8327
  1.6238  1.6238  0.5847  0.5847  0.6834  0.6834  0.4389  0.4389

 Free energy of the ion-electron system (eV)
  ---------------------------------------------------
  alpha Z        PSCENC =       402.54809531
  Ewald energy   TEWEN  =    -23367.25716677
  -Hartree energ DENC   =    -15712.34920202
  -exchange      EXHF   =         0.00000000
  -V(xc)+E(xc)   XCENC  =       -55.85231723
  PAW double counting   =  62182021.78111447-62180917.57327011
  entropy T*S    EENTRO =         0.00000000
  eigenvalues    EBANDS =     -2962.68631785
  atomic energy  EATOM  =     40258.10503704
  Solvation  Ediel_sol  =         0.00000000
  ---------------------------------------------------
  free energy    TOTEN  =      -333.28402717 eV

  energy without entropy =     -333.28402717  energy(sigma->0) =     -333.28402717


--------------------------------------------------------------------------------------------------------




--------------------------------------- Iteration      1(  14)  ---------------------------------------


    POTLOK:  cpu time      4.6028: real time      4.6135
    SETDIJ:  cpu time     13.4865: real time     13.5163
     EDDAV:  cpu time    679.4684: real time    682.5859
 BZINTS: Fermi energy:    5.923057;  465.000000 electrons
         Band energy:-0.234747E+04;  BLOECHL correction:   -0.027928
       DOS:  cpu time      0.0130: real time      0.0130
    CHARGE:  cpu time     34.7539: real time     34.8444
    MIXING:  cpu time      0.0653: real time      0.1325
    --------------------------------------------
      LOOP:  cpu time    732.3899: real time    735.7056

 eigenvalue-minimisations  : 12054
 total energy-change (2. order) : 0.1192283E+02  (-0.3813226E+02)
 number of electron     465.0000266 magnetization       0.4799277
 augmentation part      110.8238543 magnetization       0.4221261

 Broyden mixing:
  rms(total) = 0.64294E+02    rms(broyden)= 0.64294E+02
  rms(prec ) = 0.64570E+02
  weight for this iteration     100.00

 eigenvalues of (default mixing * dielectric matrix)
  average eigenvalue GAMMA=   0.8922
  2.6810  0.7107  0.7107  0.9253  0.7135  0.7135  0.5849  0.5849  0.4051

 Free energy of the ion-electron system (eV)
  ---------------------------------------------------
  alpha Z        PSCENC =       402.54809531
  Ewald energy   TEWEN  =    -23367.25716677
  -Hartree energ DENC   =    -16463.23028457
  -exchange      EXHF   =         0.00000000
  -V(xc)+E(xc)   XCENC  =       -40.96583874
  PAW double counting   =   1775604.19100186 -1774367.27950264
  entropy T*S    EENTRO =         0.00000000
  eigenvalues    EBANDS =     -2347.47254302
  atomic energy  EATOM  =     40258.10503704
  Solvation  Ediel_sol  =         0.00000000
  ---------------------------------------------------
  free energy    TOTEN  =      -321.36120154 eV

  energy without entropy =     -321.36120154  energy(sigma->0) =     -321.36120154


--------------------------------------------------------------------------------------------------------




--------------------------------------- Iteration      1(  15)  ---------------------------------------


    POTLOK:  cpu time      4.4836: real time      4.4958
    SETDIJ:  cpu time     12.9197: real time     12.9519
     EDDAV:  cpu time    747.5708: real time    750.2798
 BZINTS: Fermi energy:    5.962146;  465.000000 electrons
         Band energy:-0.217582E+04;  BLOECHL correction:   -0.029674
       DOS:  cpu time      0.0132: real time      0.0137
    CHARGE:  cpu time     34.5720: real time     34.6619
    MIXING:  cpu time      0.0683: real time      0.0685
    --------------------------------------------
      LOOP:  cpu time    799.6275: real time    802.4716

 eigenvalue-minimisations  : 13576
 total energy-change (2. order) : 0.4133191E+02  (-0.6209361E+01)
 number of electron     465.0000267 magnetization       0.1533189
 augmentation part      110.5946178 magnetization       0.1789326

 Broyden mixing:
  rms(total) = 0.71554E+02    rms(broyden)= 0.71554E+02
  rms(prec ) = 0.71738E+02
  weight for this iteration     100.00

 eigenvalues of (default mixing * dielectric matrix)
  average eigenvalue GAMMA=   0.9478
  2.8515  1.0708  1.0708  0.8745  0.6684  0.6684  0.6586  0.6586  0.4782  0.4782

 Free energy of the ion-electron system (eV)
  ---------------------------------------------------
  alpha Z        PSCENC =       402.54809531
  Ewald energy   TEWEN  =    -23367.25716677
  -Hartree energ DENC   =    -16663.56346326
  -exchange      EXHF   =         0.00000000
  -V(xc)+E(xc)   XCENC  =       -32.74527551
  PAW double counting   =   2071991.53004850 -2070692.82177648
  entropy T*S    EENTRO =         0.00000000
  eigenvalues    EBANDS =     -2175.82478702
  atomic energy  EATOM  =     40258.10503704
  Solvation  Ediel_sol  =         0.00000000
  ---------------------------------------------------
  free energy    TOTEN  =      -280.02928819 eV

  energy without entropy =     -280.02928819  energy(sigma->0) =     -280.02928819


--------------------------------------------------------------------------------------------------------




--------------------------------------- Iteration      1(  16)  ---------------------------------------


    POTLOK:  cpu time      4.4837: real time      4.4971
    SETDIJ:  cpu time     12.9876: real time     13.0184
     EDDAV:  cpu time    668.7665: real time    671.5180
 BZINTS: Fermi energy:    5.728847;  465.000000 electrons
         Band energy:-0.231655E+04;  BLOECHL correction:   -0.101703
       DOS:  cpu time      0.0130: real time      0.0131
    CHARGE:  cpu time     34.4899: real time     34.6298
    MIXING:  cpu time      0.0722: real time      0.1647
    --------------------------------------------
      LOOP:  cpu time    720.8129: real time    723.8412

 eigenvalue-minimisations  : 11800
 total energy-change (2. order) : 0.6166360E+02  (-0.7443411E+01)
 number of electron     465.0000266 magnetization      -0.0834827
 augmentation part      110.3314402 magnetization      -0.0633885

 Broyden mixing:
  rms(total) = 0.64206E+02    rms(broyden)= 0.64206E+02
  rms(prec ) = 0.64329E+02
  weight for this iteration     100.00

 eigenvalues of (default mixing * dielectric matrix)
  average eigenvalue GAMMA=   0.9698
  2.7703  1.3917  1.3917  0.8956  0.6541  0.6541  0.6829  0.6829  0.5583  0.5583
  0.4278

 Free energy of the ion-electron system (eV)
  ---------------------------------------------------
  alpha Z        PSCENC =       402.54809531
  Ewald energy   TEWEN  =    -23367.25716677
  -Hartree energ DENC   =    -16498.23286644
  -exchange      EXHF   =         0.00000000
  -V(xc)+E(xc)   XCENC  =       -28.79971596
  PAW double counting   =   1881872.81545155 -1880540.99225275
  entropy T*S    EENTRO =         0.00000000
  eigenvalues    EBANDS =     -2316.55227270
  atomic energy  EATOM  =     40258.10503704
  Solvation  Ediel_sol  =         0.00000000
  ---------------------------------------------------
  free energy    TOTEN  =      -218.36569073 eV

  energy without entropy =     -218.36569073  energy(sigma->0) =     -218.36569073


--------------------------------------------------------------------------------------------------------




--------------------------------------- Iteration      1(  17)  ---------------------------------------


    POTLOK:  cpu time      4.5223: real time      4.5374
    SETDIJ:  cpu time     13.0100: real time     13.0621
     EDDAV:  cpu time    690.6685: real time    693.9143
 BZINTS: Fermi energy:    5.581707;  465.000000 electrons
         Band energy:-0.231510E+04;  BLOECHL correction:   -0.109010
       DOS:  cpu time      0.0130: real time      0.0134
    CHARGE:  cpu time     34.7747: real time     34.8743
    MIXING:  cpu time      0.0728: real time      0.0831
    --------------------------------------------
      LOOP:  cpu time    743.0614: real time    746.4845

 eigenvalue-minimisations  : 12312
 total energy-change (2. order) : 0.3279847E+02  (-0.1021703E+02)
 number of electron     465.0000265 magnetization      -0.1806643
 augmentation part      109.6522012 magnetization      -0.1558594

 Broyden mixing:
  rms(total) = 0.65231E+02    rms(broyden)= 0.65231E+02
  rms(prec ) = 0.65310E+02
  weight for this iteration     100.00

 eigenvalues of (default mixing * dielectric matrix)
  average eigenvalue GAMMA=   0.9780
  2.8608  1.5377  1.5377  0.6643  0.6643  0.8738  0.7231  0.7231  0.5860  0.5860
  0.5312  0.4484

 Free energy of the ion-electron system (eV)
  ---------------------------------------------------
  alpha Z        PSCENC =       402.54809531
  Ewald energy   TEWEN  =    -23367.25716677
  -Hartree energ DENC   =    -16498.78662665
  -exchange      EXHF   =         0.00000000
  -V(xc)+E(xc)   XCENC  =       -22.73492016
  PAW double counting   =   2262844.22329555 -2261486.56163494
  entropy T*S    EENTRO =         0.00000000
  eigenvalues    EBANDS =     -2315.10330275
  atomic energy  EATOM  =     40258.10503704
  Solvation  Ediel_sol  =         0.00000000
  ---------------------------------------------------
  free energy    TOTEN  =      -185.56722338 eV

  energy without entropy =     -185.56722338  energy(sigma->0) =     -185.56722338


--------------------------------------------------------------------------------------------------------




--------------------------------------- Iteration      1(  18)  ---------------------------------------


    POTLOK:  cpu time      4.4949: real time      4.5099
    SETDIJ:  cpu time     12.9637: real time     12.9995
     EDDAV:  cpu time    709.2407: real time    712.2732
 BZINTS: Fermi energy:    5.617647;  465.000000 electrons
         Band energy:-0.228720E+04;  BLOECHL correction:   -0.086978
       DOS:  cpu time      0.0132: real time      0.0132
    CHARGE:  cpu time     34.6149: real time     34.7560
    MIXING:  cpu time      0.0742: real time      0.0746
    --------------------------------------------
      LOOP:  cpu time    761.4016: real time    764.6265

 eigenvalue-minimisations  : 12680
 total energy-change (2. order) : 0.1660406E+02  (-0.2937204E+01)
 number of electron     465.0000264 magnetization      -0.2243454
 augmentation part      109.1341058 magnetization      -0.2074423

 Broyden mixing:
  rms(total) = 0.52956E+02    rms(broyden)= 0.52956E+02
  rms(prec ) = 0.53029E+02
  weight for this iteration     100.00

 eigenvalues of (default mixing * dielectric matrix)
  average eigenvalue GAMMA=   0.9678
  2.7823  1.5982  1.5982  0.7233  0.7233  0.8954  0.6752  0.6752  0.6984  0.6984
  0.5338  0.5338  0.4462

 Free energy of the ion-electron system (eV)
  ---------------------------------------------------
  alpha Z        PSCENC =       402.54809531
  Ewald energy   TEWEN  =    -23367.25716677
  -Hartree energ DENC   =    -16519.50681856
  -exchange      EXHF   =         0.00000000
  -V(xc)+E(xc)   XCENC  =       -19.67684664
  PAW double counting   =   1454260.69445372 -1452896.66744449
  entropy T*S    EENTRO =         0.00000000
  eigenvalues    EBANDS =     -2287.20247209
  atomic energy  EATOM  =     40258.10503704
  Solvation  Ediel_sol  =         0.00000000
  ---------------------------------------------------
  free energy    TOTEN  =      -168.96316249 eV

  energy without entropy =     -168.96316249  energy(sigma->0) =     -168.96316249


--------------------------------------------------------------------------------------------------------




--------------------------------------- Iteration      1(  19)  ---------------------------------------


    POTLOK:  cpu time      4.4888: real time      4.5068
    SETDIJ:  cpu time     13.4834: real time     13.5383
     EDDAV:  cpu time    699.1322: real time    702.6409
 BZINTS: Fermi energy:    5.539270;  465.000000 electrons
         Band energy:-0.229089E+04;  BLOECHL correction:   -0.059173
       DOS:  cpu time      0.0119: real time      0.0120
    CHARGE:  cpu time     34.8311: real time     34.9760
    MIXING:  cpu time      0.0784: real time      0.0902
    --------------------------------------------
      LOOP:  cpu time    752.0260: real time    755.7641

 eigenvalue-minimisations  : 12496
 total energy-change (2. order) : 0.7684681E+01  (-0.5115691E+00)
 number of electron     465.0000264 magnetization      -0.2617615
 augmentation part      108.7894473 magnetization      -0.2524696

 Broyden mixing:
  rms(total) = 0.40603E+02    rms(broyden)= 0.40603E+02
  rms(prec ) = 0.40659E+02
  weight for this iteration     100.00

 eigenvalues of (default mixing * dielectric matrix)
  average eigenvalue GAMMA=   1.0202
  2.9929  1.6250  1.6250  1.0893  1.0893  0.6809  0.6809  0.7455  0.7455  0.8090
  0.5980  0.5980  0.5577  0.4454

 Free energy of the ion-electron system (eV)
  ---------------------------------------------------
  alpha Z        PSCENC =       402.54809531
  Ewald energy   TEWEN  =    -23367.25716677
  -Hartree energ DENC   =    -16511.24836168
  -exchange      EXHF   =         0.00000000
  -V(xc)+E(xc)   XCENC  =       -18.49975975
  PAW double counting   =    768762.26742611  -767396.29967258
  entropy T*S    EENTRO =         0.00000000
  eigenvalues    EBANDS =     -2290.89407911
  atomic energy  EATOM  =     40258.10503704
  Solvation  Ediel_sol  =         0.00000000
  ---------------------------------------------------
  free energy    TOTEN  =      -161.27848145 eV

  energy without entropy =     -161.27848145  energy(sigma->0) =     -161.27848145


--------------------------------------------------------------------------------------------------------




--------------------------------------- Iteration      1(  20)  ---------------------------------------


    POTLOK:  cpu time      4.4693: real time      4.4897
    SETDIJ:  cpu time     13.3428: real time     13.3776
     EDDAV:  cpu time    720.5509: real time    723.7487
 BZINTS: Fermi energy:    5.515707;  465.000000 electrons
         Band energy:-0.232997E+04;  BLOECHL correction:   -0.038028
       DOS:  cpu time      0.0128: real time      0.0129
    CHARGE:  cpu time     34.5456: real time     34.6907
    MIXING:  cpu time      0.0827: real time      0.0832
    --------------------------------------------
      LOOP:  cpu time    773.0041: real time    776.4027

 eigenvalue-minimisations  : 13000
 total energy-change (2. order) : 0.3981921E+01  (-0.6696925E+00)
 number of electron     465.0000263 magnetization      -0.2213700
 augmentation part      108.1615038 magnetization      -0.2213521

 Broyden mixing:
[...]
   0.110E+03 0.883E+02 0.131E+03   -.110E+03 -.927E+02 -.134E+03   -.279E+00 0.343E+01 0.212E+01   -.591E-04 -.641E-03 -.668E-03
   0.107E+03 -.167E+03 -.617E+02   -.110E+03 0.168E+03 0.585E+02   0.250E+01 -.120E+01 0.233E+01   -.263E-03 0.422E-03 0.225E-03
   0.215E+02 0.879E+02 0.121E+01   -.244E+02 -.927E+02 -.560E-13   0.220E+01 0.372E+01 -.973E+00   -.243E-03 -.340E-03 -.217E-03
   -.319E+02 -.165E+03 -.128E+02   0.342E+02 0.168E+03 0.171E+02   -.184E+01 -.238E+01 -.316E+01   -.137E-03 0.477E-03 0.514E-03
   0.480E+02 0.149E+03 -.130E+03   -.513E+02 -.151E+03 0.134E+03   0.261E+01 0.155E+01 -.340E+01   0.253E-04 -.170E-03 0.581E-03
   0.108E+03 -.277E+03 0.567E+02   -.110E+03 0.285E+03 -.585E+02   0.185E+01 -.638E+01 0.162E+01   0.270E-03 0.181E-03 0.551E-04
   0.206E+03 -.894E+02 -.265E+01   -.210E+03 0.927E+02 -.284E-13   0.308E+01 -.258E+01 0.198E+01   -.766E-03 0.409E-03 0.113E-03
   0.144E+03 0.109E+03 0.765E+02   -.151E+03 -.110E+03 -.756E+02   0.525E+01 0.390E+00 -.823E+00   -.783E-03 -.173E-03 -.504E-03
   -.222E+03 -.349E+02 -.408E+02   0.227E+03 0.342E+02 0.415E+02   -.413E+01 0.388E+00 -.528E+00   0.772E-03 0.628E-04 -.394E-03
   -.168E+03 -.729E+01 0.525E+02   0.168E+03 0.729E+01 -.585E+02   -.228E+00 0.794E-01 0.447E+01   0.340E-03 -.141E-03 0.415E-04
   0.949E+02 0.490E+02 -.700E+02   -.927E+02 -.513E+02 0.756E+02   -.147E+01 0.172E+01 -.424E+01   -.308E-05 -.799E-04 0.537E-03
   -.165E+03 -.883E+02 0.430E+02   0.168E+03 0.927E+02 -.415E+02   -.231E+01 -.337E+01 -.117E+01   0.318E-03 0.123E-03 0.280E-03
   -.163E+03 0.108E+03 -.574E+02   0.168E+03 -.110E+03 0.585E+02   -.392E+01 0.107E+01 -.780E+00   0.453E-03 -.177E-03 -.145E-03
   0.941E+02 -.108E+03 0.155E+02   -.927E+02 0.110E+03 -.171E+02   -.887E+00 -.120E+01 0.128E+01   0.192E-03 0.131E-03 -.121E-03
   -.108E+03 0.347E+02 0.746E+02   0.110E+03 -.342E+02 -.756E+02   -.114E+01 -.248E+00 0.833E+00   -.934E-05 0.500E-04 -.172E-03
   -.106E+03 0.952E+01 0.361E+01   0.110E+03 -.729E+01 -.142E-13   -.295E+01 -.169E+01 -.273E+01   0.408E-03 0.370E-03 0.373E-03
   -.239E+02 0.346E+02 -.575E+02   0.244E+02 -.342E+02 0.585E+02   -.260E+00 -.876E-01 -.846E+00   0.636E-04 0.123E-03 -.237E-03
   0.293E+02 -.489E+02 -.212E+02   -.342E+02 0.513E+02 0.171E+02   0.367E+01 -.188E+01 0.321E+01   -.138E-03 0.163E-03 0.158E-03
   -.110E+03 -.110E+03 -.134E+00   0.110E+03 0.110E+03 0.355E-14   0.133E-01 -.711E-01 0.872E-02   -.708E-05 0.101E-03 -.237E-03
   0.108E+02 0.275E+02 0.137E+02   -.106E+02 -.277E+02 -.137E+02   -.151E+00 0.145E+00 -.935E-01   -.134E-04 0.164E-04 -.320E-04
   0.574E+02 0.578E+02 0.157E+03   -.581E+02 -.581E+02 -.164E+03   0.708E+00 0.494E+00 0.638E+01   -.226E-03 -.254E-03 -.232E-04
   0.873E+02 0.163E+03 0.934E+01   -.881E+02 -.170E+03 -.926E+01   0.107E+01 0.574E+01 -.702E-01   -.155E-03 0.304E-04 -.337E-03
   0.871E+02 0.146E+03 0.905E+02   -.905E+02 -.151E+03 -.940E+02   0.249E+01 0.414E+01 0.245E+01   -.140E-04 -.224E-03 -.349E-03
   0.698E+02 0.916E+02 -.742E+02   -.726E+02 -.945E+02 0.770E+02   0.288E+01 0.293E+01 -.263E+01   -.699E-04 -.446E-04 0.665E-04
   0.314E+02 0.701E+02 -.498E+02   -.321E+02 -.711E+02 0.491E+02   0.808E+00 0.126E+01 0.723E+00   -.551E-05 -.781E-04 0.256E-04
   0.217E+03 -.499E+01 -.111E+02   -.225E+03 0.486E+01 0.112E+02   0.632E+01 -.231E+00 0.479E-03   -.204E-03 0.220E-04 0.318E-03
   0.122E+02 0.217E+03 -.283E+02   -.122E+02 -.225E+03 0.283E+02   0.440E-01 0.618E+01 -.106E+00   0.137E-04 -.218E-03 0.325E-03
   0.686E+02 -.796E+02 -.593E+02   -.726E+02 0.841E+02 0.630E+02   0.319E+01 -.329E+01 -.223E+01   -.896E-05 -.374E-04 -.469E-04
   0.149E+03 -.120E+03 -.644E+02   -.153E+03 0.125E+03 0.687E+02   0.347E+01 -.357E+01 -.311E+01   -.191E-03 0.230E-03 -.397E-04
   0.398E+02 -.425E+02 0.277E+02   -.411E+02 0.432E+02 -.272E+02   0.135E+01 -.778E+00 -.594E+00   0.147E-04 -.399E-04 -.158E-03
   0.723E+02 -.152E+03 0.850E+02   -.750E+02 0.155E+03 -.875E+02   0.258E+01 -.321E+01 0.238E+01   -.689E-04 0.251E-03 -.316E-03
   0.307E+02 -.270E+02 -.309E+01   -.301E+02 0.277E+02 0.271E+01   -.670E+00 -.960E+00 0.106E+00   -.421E-04 -.205E-04 0.345E-04
   0.571E+02 -.196E+03 0.127E+02   -.581E+02 0.203E+03 -.127E+02   0.109E+01 -.614E+01 0.779E-01   0.231E-04 0.873E-04 0.473E-04
   -.492E+02 0.724E+02 -.803E+02   0.527E+02 -.765E+02 0.846E+02   -.213E+01 0.282E+01 -.332E+01   -.248E-04 -.186E-04 0.160E-03
   0.807E+01 -.224E+03 -.241E+02   -.817E+01 0.232E+03 0.242E+02   0.363E-01 -.653E+01 -.182E-01   -.517E-04 0.250E-03 0.315E-03
   0.122E+01 -.725E+01 -.384E+00   -.690E+00 0.730E+01 0.243E+00   -.570E+00 -.645E-01 0.534E+00   0.259E-04 0.226E-04 0.188E-06
   -.120E+03 0.110E+03 -.257E+02   0.125E+03 -.114E+03 0.297E+02   -.332E+01 0.311E+01 -.282E+01   0.185E-03 -.217E-03 -.468E-05
   -.210E+03 0.341E+02 0.817E+01   0.218E+03 -.342E+02 -.765E+01   -.614E+01 -.352E-01 -.632E+00   0.177E-03 0.192E-05 -.307E-03
   -.211E+02 0.400E+02 0.517E+01   0.213E+02 -.411E+02 -.522E+01   -.154E+00 0.115E+01 -.565E-01   0.283E-04 -.486E-04 -.142E-03
   0.480E+02 0.676E+02 0.561E+02   -.521E+02 -.710E+02 -.601E+02   0.281E+01 0.239E+01 0.259E+01   0.117E-04 -.826E-05 0.784E-05
   -.382E+02 0.573E+02 -.144E+03   0.385E+02 -.581E+02 0.152E+03   -.332E+00 0.923E+00 -.651E+01   0.109E-04 -.475E-04 0.115E-04
   -.224E+03 -.135E+02 -.249E+01   0.232E+03 0.138E+02 0.226E+01   -.616E+01 -.542E+00 0.375E+00   0.210E-03 -.508E-04 0.313E-03
   -.786E+01 -.109E+03 -.463E+01   0.822E+01 0.116E+03 0.470E+01   -.444E+00 -.532E+01 0.323E-01   -.325E-05 -.594E-04 0.134E-03
   0.482E+02 0.700E+02 0.921E+02   -.521E+02 -.741E+02 -.960E+02   0.262E+01 0.272E+01 0.289E+01   0.101E-04 -.261E-04 0.817E-05
   -.215E+03 -.579E+02 -.198E+02   0.223E+03 0.580E+02 0.197E+02   -.620E+01 0.270E-01 0.462E-01   0.213E-03 0.273E-03 -.540E-04
   -.106E+03 -.838E+02 0.676E+02   0.110E+03 0.881E+02 -.721E+02   -.314E+01 -.307E+01 0.328E+01   -.542E-05 -.150E-04 -.126E-03
   0.509E+02 -.106E+03 -.666E+02   -.546E+02 0.110E+03 0.706E+02   0.235E+01 -.383E+01 -.278E+01   0.257E-04 0.556E-04 -.113E-03
   -.776E+02 0.573E+02 -.926E+02   0.816E+02 -.611E+02 0.965E+02   -.283E+01 0.255E+01 -.293E+01   0.560E-04 0.124E-04 0.119E-04
   -.120E+03 -.120E+03 0.680E+02   0.125E+03 0.125E+03 -.722E+02   -.341E+01 -.374E+01 0.302E+01   0.409E-05 0.707E-04 0.417E-04
   0.453E+02 0.736E+02 0.478E+02   -.487E+02 -.781E+02 -.516E+02   0.209E+01 0.341E+01 0.283E+01   0.269E-04 0.167E-04 0.123E-03
   -.169E+01 -.137E+02 0.108E+02   0.174E+01 0.141E+02 -.108E+02   -.123E+00 -.782E+00 -.123E+00   0.535E-04 0.499E-04 0.914E-04
 -----------------------------------------------------------------------------------------------
   -.257E+01 0.371E+01 0.594E+00   0.725E-12 0.373E-12 0.178E-12   0.256E+01 -.371E+01 -.596E+00   0.668E-03 0.452E-03 -.368E-03
 
 
 POSITION                                       TOTAL-FORCE (eV/Angst)
 -----------------------------------------------------------------------------------
      3.08150      3.08150      6.16300        -0.904423     -1.751470      0.126261
      0.00000      6.16300      0.00000         0.628902     -0.235801     -0.617975
      3.08150      6.16300      3.08150         0.101626     -1.022829     -0.698022
      3.08150      9.24450      0.00000        -0.692318      0.248843     -0.785392
      0.00000      6.16300      6.16300        -0.668002     -1.060810      0.232613
      0.00000      9.24450      9.24450         0.384487      0.683231      1.077622
      3.08150      6.16300      9.24450        -0.642843     -0.231967      1.185468
      3.08150      9.24450      6.16300        -0.427858      2.144207     -0.267316
      6.16300      0.00000      0.00000        -0.923326      0.695868     -0.668063
      6.16300      3.08150      3.08150        -1.713570     -0.008528      0.097794
      9.24450      0.00000      3.08150         1.168828     -0.294839      0.092820
      9.24450      3.08150      0.00000         0.007353      0.076466     -1.572131
      6.16300      3.08150      9.24450         0.704186     -0.559473      1.416017
      9.24450      0.00000      9.24450         0.652098      1.081817      0.403713
      9.24450      3.08150      6.16300         1.329095     -0.356685      0.397869
      6.16300      9.24450      3.08150         0.544044      0.293461     -0.285652
      9.24450      6.16300      3.08150         0.280885      0.327567     -0.207686
      9.24450      9.24450      0.00000         1.058152      0.542428      0.875105
      6.16300      6.16300      6.16300         0.258437      0.308227      0.198323
      6.16300      9.24450      9.24450        -1.229629      0.448797     -0.862786
      9.24450      9.24450      6.16300        -0.093720     -0.061725     -0.125967
      1.54075      1.54075      1.54075         0.049488     -0.017485     -0.086035
      4.62225      4.62225      1.54075         0.059370      0.181628     -1.403282
      4.62225      1.54075      4.62225         0.261402     -1.194195      0.007393
      1.54075      4.62225      4.62225        -0.938865     -0.408582     -1.094595
      1.54075      1.54075      7.70375         0.045105     -0.002337      0.192218
      4.62225      4.62225      7.70375         0.110743      0.202512      0.041654
      4.62225      1.54075     10.78525        -1.580211     -0.353243      0.029839
      1.54075      4.62225     10.78525        -0.005083     -1.557586     -0.157675
      1.54075      7.70375      1.54075        -0.816383      1.174423      1.469042
      4.62225     10.78525      1.54075        -1.091576      1.068328      1.201241
      4.62225      7.70375      4.62225         0.040791     -0.087214     -0.018626
      1.54075     10.78525      4.62225        -0.140123     -0.035010     -0.193914
      1.54075      7.70375      7.70375        -0.088432     -0.221651     -0.268943
      4.62225     10.78525      7.70375         0.084793      1.196433      0.068224
      4.62225      7.70375     10.78525         1.393521     -1.323155      0.930033
      1.54075     10.78525     10.78525        -0.062483      1.519243      0.044695
      7.70375      1.54075      1.54075        -0.043326     -0.017639      0.393441
     10.78525      4.62225      1.54075         1.065700     -1.023507      1.193210
     10.78525      1.54075      4.62225         1.101303     -0.079400     -0.113620
      7.70375      4.62225      4.62225        -0.027360      0.019176     -0.104204
      7.70375      1.54075      7.70375        -1.288681     -1.001053     -1.444125
     10.78525      4.62225      7.70375         0.021684      0.121159      1.330397
     10.78525      1.54075     10.78525         1.576630     -0.238754      0.151075
      7.70375      4.62225     10.78525        -0.077421      1.669792      0.096923
      7.70375      7.70375      1.54075        -1.295750     -1.335534     -0.970958
     10.78525     10.78525      1.54075         1.249044      0.122280     -0.106993
     10.78525      7.70375      4.62225         1.138526      1.255514     -1.146689
      7.70375     10.78525      4.62225        -1.355590      0.953180      1.221825
      7.70375      7.70375      7.70375         1.195975     -1.260458      0.965654
     10.78525     10.78525      7.70375         1.016631      0.967944     -1.171991
     10.78525      7.70375     10.78525        -1.350229     -1.146236     -0.972125
      7.70375     10.78525     10.78525        -0.071597     -0.415361     -0.095706
 -----------------------------------------------------------------------------------
    total drift:                               -0.001413     -0.000489     -0.002124


--------------------------------------------------------------------------------------------------------



  FREE ENERGIE OF THE ION-ELECTRON SYSTEM (eV)
  ---------------------------------------------------
  free  energy   TOTEN  =      -150.84326921 eV

  energy  without entropy=     -150.84326921  energy(sigma->0) =     -150.84326921
 


--------------------------------------------------------------------------------------------------------


    POTLOK:  cpu time     18.6456: real time     18.6954


--------------------------------------------------------------------------------------------------------


 stress matrix after NEB project (eV)
    104.71229     -0.61487     -2.81189
     -0.61487    105.91989     -0.96772
     -2.81189     -0.96772    104.65264
  FORCES: max atom, RMS     2.202758    1.432279
  FORCE total and by dimension   10.427148    2.144207
  Stress total and by dimension  182.083236  105.919892
     LOOP+:  cpu time  44448.8529: real time  44602.5567
 -----------------------------------------------------------------------------
|                                                                             |
|           W    W    AA    RRRRR   N    N  II  N    N   GGGG   !!!           |
|           W    W   A  A   R    R  NN   N  II  NN   N  G    G  !!!           |
|           W    W  A    A  R    R  N N  N  II  N N  N  G       !!!           |
|           W WW W  AAAAAA  RRRRR   N  N N  II  N  N N  G  GGG   !            |
|           WW  WW  A    A  R   R   N   NN  II  N   NN  G    G                |
|           W    W  A    A  R    R  N    N  II  N    N   GGGG   !!!           |
|                                                                             |
|     Tetrahedron method does not include variations of the Fermi             |
|     occupations, so forces and stress will be inaccurate. We suggest        |
|     using a different smearing scheme ISMEAR = 1 or 2 for metals in         |
|     relaxations.                                                            |
|                                                                             |
 -----------------------------------------------------------------------------

    4ORBIT:  cpu time      0.0000: real time      0.0000



 total charge

# of ion       s       p       d       tot
------------------------------------------
    1        0.868   0.785   9.909  11.562
    2        0.870   0.788   9.907  11.565
    3        0.864   0.801   9.907  11.572
    4        0.862   0.785   9.908  11.555
    5        0.863   0.803   9.907  11.573
    6        0.874   0.788   9.906  11.568
    7        0.880   0.788   9.905  11.573
    8        0.877   0.790   9.908  11.575
    9        0.891   0.784   9.905  11.579
   10        0.872   0.800   9.906  11.578
   11        0.864   0.799   9.908  11.571
   12        0.863   0.786   9.908  11.557
   13        0.866   0.792   9.907  11.564
   14        0.878   0.785   9.906  11.569
   15        0.865   0.793   9.908  11.566
   16        0.876   0.792   9.905  11.574
   17        0.883   0.789   9.905  11.577
   18        0.870   0.794   9.907  11.572
   19        0.905   0.788   9.902  11.596
   20        0.874   0.801   9.906  11.581
   21        0.861   0.789   9.908  11.558
   22        1.408   1.830   0.002   3.240
   23        1.384   2.019   0.023   3.425
   24        1.385   2.010   0.023   3.418
   25        1.382   2.065   0.035   3.481
   26        1.389   1.936   0.012   3.338
   27        1.379   2.116   0.047   3.542
   28        1.390   2.001   0.024   3.414
   29        1.390   2.000   0.024   3.414
   30        1.375   2.084   0.032   3.491
   31        1.387   2.049   0.035   3.470
   32        1.373   2.129   0.048   3.550
   33        1.390   1.936   0.013   3.339
   34        1.372   2.134   0.045   3.552
   35        1.386   2.013   0.024   3.423
   36        1.369   2.099   0.032   3.500
   37        1.385   2.011   0.023   3.420
   38        1.370   2.136   0.045   3.551
   39        1.382   2.063   0.033   3.479
   40        1.388   2.002   0.024   3.414
   41        1.373   2.131   0.048   3.552
   42        1.373   2.093   0.031   3.498
   43        1.382   2.021   0.023   3.427
   44        1.383   2.017   0.023   3.422
   45        1.370   2.058   0.020   3.448
   46        1.375   2.090   0.032   3.498
   47        1.382   2.023   0.023   3.427
   48        1.375   2.080   0.033   3.489
   49        1.372   2.090   0.032   3.494
   50        1.377   2.084   0.033   3.495
   51        1.383   2.057   0.034   3.474
   52        1.370   2.096   0.032   3.498
   53        1.366   2.139   0.047   3.552
--------------------------------------------------
tot         62.496  82.230 208.994 353.720



 magnetization (x)

# of ion       s       p       d       tot
------------------------------------------
    1        0.000   0.001  -0.001   0.000
    2        0.000  -0.001  -0.000  -0.001
    3       -0.001   0.000   0.000  -0.000
    4       -0.001  -0.001  -0.000  -0.001
    5       -0.001  -0.000   0.000  -0.001
    6       -0.005  -0.001  -0.000  -0.007
    7       -0.009   0.000  -0.000  -0.009
    8        0.000   0.001  -0.000   0.002
    9       -0.005  -0.002  -0.000  -0.007
   10       -0.003  -0.001   0.000  -0.004
   11       -0.000  -0.000  -0.000  -0.000
   12       -0.001  -0.000  -0.000  -0.002
   13       -0.003  -0.001   0.000  -0.004
   14       -0.006   0.000   0.000  -0.006
   15       -0.001   0.001  -0.000  -0.000
   16       -0.008  -0.002  -0.000  -0.010
   17       -0.009  -0.002  -0.000  -0.011
   18       -0.001   0.001  -0.000   0.000
   19       -0.008  -0.002  -0.001  -0.011
   20       -0.002  -0.002  -0.000  -0.004
   21       -0.002  -0.000  -0.000  -0.003
   22        0.010   0.687   0.000   0.698
   23        0.001   0.026   0.000   0.027
   24        0.001   0.021   0.000   0.022
   25        0.000   0.003   0.000   0.003
   26       -0.001  -0.053  -0.000  -0.054
   27       -0.001  -0.004  -0.001  -0.006
   28       -0.000   0.002  -0.000   0.002
   29        0.000   0.004  -0.000   0.004
   30       -0.000  -0.001  -0.000  -0.001
   31       -0.002  -0.001  -0.001  -0.004
   32       -0.001  -0.002  -0.001  -0.003
   33        0.001  -0.004   0.000  -0.002
   34       -0.002   0.003  -0.000   0.000
   35       -0.000  -0.001  -0.000  -0.001
   36       -0.000  -0.001  -0.000  -0.002
   37       -0.000   0.003   0.000   0.003
   38       -0.001  -0.001  -0.001  -0.003
   39       -0.002  -0.000  -0.001  -0.003
   40        0.001   0.004   0.000   0.005
   41       -0.001  -0.002  -0.001  -0.005
   42       -0.001   0.004  -0.000   0.003
   43       -0.000  -0.002  -0.000  -0.002
   44        0.001   0.008   0.000   0.009
   45       -0.000   0.000  -0.000   0.000
   46       -0.002   0.000  -0.000  -0.002
   47        0.002   0.008   0.000   0.010
   48       -0.001  -0.001  -0.000  -0.002
   49       -0.000  -0.001  -0.000  -0.001
   50       -0.002  -0.001  -0.001  -0.003
   51       -0.001  -0.003  -0.001  -0.005
   52       -0.000  -0.000  -0.000  -0.001
   53       -0.001  -0.002  -0.001  -0.004
--------------------------------------------------
tot         -0.070   0.683  -0.011   0.603
 
 BZINTS: Fermi energy:    5.436653;  465.000000 electrons
         Band energy:-0.226401E+04;  BLOECHL correction:   -0.035240

 total amount of memory used by VASP MPI-rank0  5981243. kBytes
=======================================================================

   base      :      30000. kBytes
   nonlr-proj:      36512. kBytes
   fftplans  :     258764. kBytes
   grid      :     682882. kBytes
   one-center:       1648. kBytes
   wavefun   :    4971437. kBytes
 
  
  
 General timing and accounting informations for this job:
 ========================================================
  
                  Total CPU time used (sec):    44585.285
                            User time (sec):    44577.322
                          System time (sec):        7.964
                         Elapsed time (sec):    44741.421
  
                   Maximum memory used (kb):     7198736.
                   Average memory used (kb):          N/A
  
                          Minor page faults:       288720
                          Major page faults:            2
                 Voluntary context switches:         6639
